# vtk DataFile Version 3.0
vtk output
ASCII
DATASET UNSTRUCTURED_GRID
POINTS 35849 float
   8.326    1.690    2.052 
   8.396    1.644    2.084 
   8.115    1.923    0.561 
   8.159    1.915    0.647 
   8.166    1.999    0.620 
   6.227    3.427    9.382 
   6.266    3.497    9.460 
   6.178    3.475    9.435 
   4.978    1.564    6.536 
   4.913    1.552    6.466 
   4.996    1.513    6.471 
   2.395    3.633    2.667 
   2.377    3.709    2.706 
   8.616    1.488    5.463 
   5.996    4.393    5.113 
   5.993    4.396    5.023 
   5.127    5.891    4.376 
   5.136    5.807    4.410 
   6.943    6.640    6.984 
   6.970    6.620    7.062 
   6.872    6.638    7.025 
   9.333    1.239    1.925 
   3.625    2.105    5.678 
   3.543    2.143    5.605 
   3.595    2.079    5.606 
   7.656    2.861    5.067 
   7.972    6.355    1.508 
   8.048    6.419    1.516 
   5.366    6.790    3.256 
   5.320    6.677    3.313 
   5.331    6.758    3.335 
   6.634    6.093    7.683 
  10.188    4.975    1.719 
  10.189    4.898    1.671 
   7.089    5.326    7.991 
   2.879    2.880    2.153 
   6.808    5.440    7.104 
   6.872    5.465    7.075 
   5.920    0.677    1.534 
   5.981    0.674    1.498 
   6.024    0.638    1.570 
   3.231    4.790    1.642 
   3.299    4.880    1.651 
   3.215    4.860    1.700 
   5.715    2.843    8.623 
   5.927    4.665    1.504 
   6.002    4.588    1.460 
   5.958    4.564    1.519 
   6.758    2.836    2.704 
   4.850    2.992    7.540 
   4.859    2.954    7.462 
   5.165    4.060    5.432 
   5.213    4.050    5.379 
   8.405    3.926    7.042 
   8.398    4.000    7.096 
   8.481    3.960    7.074 
   7.858    0.534    1.627 
   7.261    3.548    9.095 
   7.171    3.485    9.102 
   7.167    3.549    9.147 
   6.208    7.482    2.737 
   9.148    3.656    6.109 
   9.243    3.706    6.092 
   6.167    3.118    0.698 
   6.195    3.190    0.698 
   2.645    3.025    2.425 
   2.673    2.943    2.464 
   7.691    0.671    1.061 
   7.603    0.684    1.010 
   7.645    0.643    1.106 
   3.230    5.145    1.953 
   7.922    8.581    4.240 
   4.419    1.406    1.497 
   2.519    2.831    3.222 
   5.667    0.592    4.326 
   6.355    7.998    3.751 
   6.895    4.383    6.043 
   6.837    4.434    6.116 
   8.886    1.508    3.435 
   8.803    1.564    3.487 
   8.914    1.524    3.493 
   4.780    5.062    3.252 
   6.331    7.827    3.068 
  11.001    4.660    3.750 
  11.002    4.682    3.668 
   2.263    3.539    3.611 
   6.259    6.177    1.894 
   9.102    2.700    5.391 
   9.168    2.730    5.391 
   9.199    2.681    5.330 
   4.617    3.923    0.921 
   4.528    3.919    0.938 
   4.720    4.358    5.267 
   6.756    2.714    3.848 
   6.788    2.697    3.939 
   7.343    3.344    1.965 
   7.357    3.258    2.001 
   7.400    3.264    1.917 
  10.127    1.745    3.383 
  10.776    5.661    4.037 
  10.785    5.618    4.104 
  10.749    5.693    4.147 
   3.214    1.792    4.062 
   3.255    1.748    4.134 
   3.224    1.805    4.165 
   3.941    1.438    5.151 
   8.592    1.062    2.451 
   8.650    1.018    2.464 
   8.662    6.863    1.872 
  10.326    6.347    4.948 
   3.908    1.447    2.048 
   9.865    7.102    5.148 
   5.230    3.182    7.091 
   5.378    4.171    4.365 
   5.336    4.223    4.323 
   8.919    2.975    6.536 
   8.894    2.938    6.593 
   8.917    2.900    6.521 
   4.867    0.810    4.264 
   4.852    0.818    4.344 
   5.992    4.764    6.856 
   5.942    4.737    6.820 
   5.915    4.725    6.905 
   3.878    4.881    1.340 
   6.537    0.429    3.985 
   6.456    0.428    3.982 
   5.155    5.589    4.544 
   5.105    5.624    4.583 
   5.119    5.689    4.515 
   7.291    0.396    3.517 
   7.257    0.393    3.577 
   7.201    0.381    3.504 
   7.406    2.053    2.682 
   7.466    1.992    2.715 
   7.393    3.508    6.696 
   7.491    3.493    6.713 
   7.455    3.443    6.648 
   4.875    3.268    8.406 
   4.898    3.266    8.485 
   4.884    3.341    8.415 
   4.268    1.080    2.887 
   4.208    1.109    2.924 
   5.651    4.785    4.267 
   8.669    2.522    5.923 
   8.697    2.579    5.977 
   5.959    4.886    7.390 
   5.909    4.885    7.326 
   7.519    2.382    0.983 
   7.498    2.487    0.927 
   7.543    2.427    0.914 
  10.225    2.157    1.072 
  10.281    2.101    1.140 
  10.201    2.081    1.079 
   5.846    2.364    0.684 
   5.773    2.307    0.698 
   5.729    2.372    0.708 
   7.395    6.110    7.108 
   4.598    6.471    6.478 
   4.698    6.494    6.500 
   4.675    6.479    6.427 
   5.545    4.874    1.384 
   5.630    4.866    1.367 
   5.595    4.814    1.323 
  11.020    3.605    2.494 
  11.044    3.602    2.594 
  11.036    3.541    2.537 
   8.227    7.649    5.937 
   5.487    3.723    6.664 
   5.400    3.754    6.631 
  11.045    3.769    2.690 
  11.061    3.767    2.794 
  11.061    3.695    2.747 
   7.752    1.774    6.717 
   7.816    1.759    6.653 
   7.609    3.272    1.602 
   7.573    3.249    1.664 
   9.889    7.396    3.870 
   9.848    7.453    3.938 
   9.900    7.395    3.953 
   7.762    8.378    5.051 
   7.053    6.705    1.776 
   6.985    6.715    1.805 
   3.845    1.517    2.010 
   3.802    1.544    2.055 
   6.303    5.170    7.529 
   6.346    5.236    7.565 
   4.870    4.051    5.999 
   7.321    3.491    6.649 
   7.246    3.534    6.661 
   7.308    3.564    6.719 
   3.234    2.072    4.884 
   3.223    2.113    4.942 
   6.365    4.160    1.278 
   6.314    4.128    1.361 
   6.374    4.069    1.326 
   8.655    3.143    5.886 
   8.640    3.087    5.839 
   8.710    3.078    5.827 
   5.587    4.982    1.689 
   6.440    3.526    1.791 
   8.789    1.414    5.037 
   8.761    1.426    5.125 
   8.830    1.488    5.059 
   7.078    3.657    2.119 
   8.343    3.231    7.614 
   8.295    3.241    7.685 
   8.360    3.319    7.635 
   3.850    2.685    1.176 
   3.830    2.799    1.164 
   3.787    2.739    1.199 
   4.336    5.624    2.230 
   4.231    5.625    2.171 
   4.302    5.592    2.148 
   5.911    0.774    1.344 
   6.001    0.741    1.359 
   6.001    0.787    1.281 
   9.939    4.964    1.492 
   9.858    4.982    1.449 
   9.879    5.050    1.493 
   9.903    1.901    4.047 
   9.912    1.954    4.114 
   6.365    4.570    6.348 
   6.310    4.610    6.401 
   5.956    1.735    7.184 
   6.071    1.711    7.161 
   6.053    1.758    7.228 
   6.950    4.961    6.651 
   7.042    4.975    6.648 
   6.966    5.032    6.705 
   4.659    5.622    3.597 
   4.640    5.723    3.578 
   7.982    4.615    7.458 
   7.972    4.549    7.422 
   6.041    4.659    6.408 
   8.603    2.021    1.125 
   8.533    2.108    1.089 
   8.606    2.068    1.076 
   8.316    1.380    3.603 
   8.321    1.359    3.538 
   8.244    1.405    3.527 
  10.347    6.058    5.052 
  10.373    5.961    5.048 
  10.332    6.002    5.112 
   3.492    5.420    2.656 
   3.568    5.486    2.663 
   3.489    5.475    2.589 
  10.709    2.204    1.838 
  10.690    2.229    1.769 
   5.735    0.592    4.425 
   9.072    2.981    0.742 
   8.996    2.958    0.744 
   9.736    2.323    4.710 
   9.684    2.289    4.695 
   4.609    5.102    5.820 
   3.165    3.815    1.465 
   3.214    3.908    1.428 
   3.120    3.892    1.475 
   3.345    2.576    5.783 
   5.338    6.517    6.153 
   5.392    6.516    6.226 
   5.823    4.659    7.034 
   5.819    4.644    7.123 
   9.379    4.463    1.060 
   9.387    4.382    1.041 
   5.837    4.691    3.399 
   6.214    2.846    8.718 
   6.204    2.918    8.783 
   6.124    2.901    8.758 
  10.502    2.447    3.935 
   4.846    1.319    6.012 
   4.915    1.265    5.961 
   4.957    1.283    6.032 
   7.574    2.082    4.126 
   7.492    2.164    4.149 
   8.166    1.871    0.599 
   7.474    3.729    5.686 
   7.466    3.795    5.739 
   7.405    3.827    5.676 
   8.013    4.709    8.586 
   8.016    4.622    8.646 
   5.969    6.608    7.770 
   5.899    6.616    7.702 
   5.983    6.652    7.704 
   6.541    0.397    2.452 
   6.616    0.387    2.456 
   6.586    0.400    2.369 
   7.928    3.103    1.234 
   7.884    3.046    1.278 
   7.951    3.033    1.223 
  10.656    2.001    2.477 
   5.829    6.530    5.409 
   5.886    6.531    5.478 
   9.641    6.537    5.907 
   9.167    6.985    2.273 
   6.890    2.839    8.583 
   6.810    2.854    8.641 
   6.811    2.800    8.578 
   8.088    3.359    6.037 
   8.083    7.304    2.094 
   9.467    6.475    6.146 
   9.457    6.549    6.118 
   9.401    6.561    6.175 
   8.707    5.650    6.765 
   8.695    5.736    6.782 
  10.004    6.385    2.641 
   9.968    6.481    2.660 
   3.972    4.861    1.304 
   4.034    4.793    1.269 
   3.946    4.782    1.271 
   7.467    3.172    8.540 
   7.484    3.125    8.472 
  10.773    5.718    3.778 
  10.769    5.741    3.697 
  10.801    5.648    3.722 
   4.532    2.007    1.049 
   3.735    1.569    2.147 
   5.865    3.979    8.066 
   5.882    3.960    7.983 
   5.501    0.653    4.443 
   5.517    0.637    4.372 
   4.681    0.864    3.435 
   4.751    0.838    3.466 
   5.973    1.272    6.439 
   6.063    1.260    6.427 
   8.570    2.041    5.378 
   8.485    2.073    5.387 
   8.592    2.084    5.439 
   7.926    2.747    7.726 
   7.948    2.699    7.669 
   7.997    2.792    7.700 
   3.871    1.946    5.852 
   3.851    2.005    5.893 
   3.943    1.922    5.921 
   4.277    4.068    6.438 
   4.334    4.020    6.470 
   7.328    2.517    0.456 
  10.418    6.477    4.509 
  10.806    4.795    4.530 
  10.797    4.888    4.526 
  10.774    4.811    4.604 
   8.916    2.495    6.272 
   8.933    2.572    6.287 
   9.995    2.818    4.971 
   9.948    2.729    4.955 
  10.037    2.788    4.900 
   5.394    1.388    6.494 
   9.169    5.565    6.605 
   9.246    5.547    6.575 
   7.482    2.097    1.469 
   9.399    6.728    2.240 
   9.363    6.822    2.287 
   9.325    6.779    2.217 
   9.691    3.982    5.964 
[...]
POINT_DATA 35849
SCALARS Scalar1 double 
LOOKUP_TABLE default
 0.174000 
 0.174000 
 0.182000 
 0.182000 
 0.181200 
 0.151600 
 0.151600 
 0.151600 
 0.140400 
 0.141200 
 0.140400 
 0.173200 
 0.173200 
 0.147600 
 0.160400 
 0.162000 
 0.168400 
 0.171600 
 0.159600 
 0.161200 
 0.161200 
 0.170000 
 0.145200 
 0.146800 
 0.145200 
 0.166800 
 0.158000 
 0.158000 
 0.162000 
 0.161200 
 0.162000 
 0.171600 
 0.166800 
 0.166800 
 0.168400 
 0.174000 
 0.170000 
 0.170000 
 0.166000 
 0.166000 
 0.166000 
 0.176400 
 0.176400 
 0.174000 
 0.142800 
 0.152400 
 0.152400 
 0.155600 
 0.170800 
 0.134000 
 0.133200 
 0.154800 
 0.154800 
 0.162800 
 0.162800 
 0.162800 
 0.166800 
 0.154800 
 0.154800 
 0.154800 
 0.174800 
 0.156400 
 0.154800 
 0.167600 
 0.167600 
 0.173200 
 0.171600 
 0.170000 
 0.171600 
 0.170000 
 0.167600 
 0.210000 
 0.171600 
 0.167600 
 0.146800 
 0.189200 
 0.158800 
 0.158800 
 0.165200 
 0.164400 
 0.164400 
 0.158800 
 0.184400 
 0.148400 
 0.148400 
 0.168400 
 0.152400 
 0.155600 
 0.154000 
 0.154800 
 0.174800 
 0.174800 
 0.161200 
 0.174000 
 0.171600 
 0.158800 
 0.160400 
 0.159600 
 0.159600 
 0.154000 
 0.153200 
 0.154800 
 0.157200 
 0.157200 
 0.156400 
 0.149200 
 0.165200 
 0.165200 
 0.166800 
 0.162800 
 0.168400 
 0.174000 
 0.134800 
 0.159600 
 0.159600 
 0.156400 
 0.156400 
 0.156400 
 0.149200 
 0.149200 
 0.157200 
 0.157200 
 0.157200 
 0.176400 
 0.147600 
 0.147600 
 0.173200 
 0.173200 
 0.171600 
 0.153200 
 0.151600 
 0.153200 
 0.173200 
 0.170800 
 0.156400 
 0.156400 
 0.156400 
 0.140400 
 0.140400 
 0.140400 
 0.161200 
 0.162000 
 0.169200 
 0.155600 
 0.154800 
 0.159600 
 0.159600 
 0.175600 
 0.174000 
 0.175600 
 0.170800 
 0.169200 
 0.171600 
 0.176400 
 0.178000 
 0.174800 
 0.158800 
 0.146000 
 0.146800 
 0.146800 
 0.155600 
 0.154000 
 0.154800 
 0.156400 
 0.154000 
 0.155600 
 0.178000 
 0.140400 
 0.142000 
 0.154000 
 0.153200 
 0.154000 
 0.142800 
 0.142800 
 0.159600 
 0.159600 
 0.177200 
 0.179600 
 0.179600 
 0.200400 
 0.165200 
 0.165200 
 0.170000 
 0.168400 
 0.166000 
 0.166000 
 0.152400 
 0.156400 
 0.154800 
 0.154800 
 0.154000 
 0.154000 
 0.158800 
 0.158800 
 0.158800 
 0.158800 
 0.158000 
 0.158000 
 0.154800 
 0.162800 
 0.149200 
 0.148400 
 0.151600 
 0.157200 
 0.155600 
 0.155600 
 0.157200 
 0.180400 
 0.180400 
 0.180400 
 0.155600 
 0.155600 
 0.155600 
 0.167600 
 0.167600 
 0.167600 
 0.169200 
 0.169200 
 0.169200 
 0.154800 
 0.154800 
 0.155600 
 0.155600 
 0.142000 
 0.142000 
 0.142000 
 0.165200 
 0.165200 
 0.165200 
 0.158000 
 0.154800 
 0.162000 
 0.162000 
 0.154000 
 0.174800 
 0.174800 
 0.175600 
 0.159600 
 0.159600 
 0.159600 
 0.162000 
 0.158800 
 0.158800 
 0.158000 
 0.154800 
 0.158000 
 0.163600 
 0.165200 
 0.146000 
 0.170800 
 0.171600 
 0.152400 
 0.152400 
 0.164400 
 0.182000 
 0.182800 
 0.182000 
 0.147600 
 0.155600 
 0.155600 
 0.154800 
 0.154800 
 0.165200 
 0.165200 
 0.168400 
 0.145200 
 0.145200 
 0.145200 
 0.150800 
 0.143600 
 0.143600 
 0.143600 
 0.162800 
 0.164400 
 0.182000 
 0.163600 
 0.163600 
 0.163600 
 0.167600 
 0.167600 
 0.171600 
 0.171600 
 0.171600 
 0.160400 
 0.159600 
 0.160400 
 0.163600 
 0.163600 
 0.163600 
 0.160400 
 0.167600 
 0.167600 
 0.173200 
 0.172400 
 0.150000 
 0.150000 
 0.148400 
 0.164400 
 0.174800 
 0.177200 
 0.175600 
 0.177200 
 0.171600 
 0.171600 
 0.167600 
 0.168400 
 0.174000 
 0.174000 
 0.176400 
 0.154800 
 0.154800 
 0.156400 
 0.156400 
 0.154800 
 0.176400 
 0.169200 
 0.147600 
 0.147600 
 0.146800 
 0.148400 
 0.155600 
 0.155600 
 0.135600 
 0.135600 
 0.153200 
 0.154800 
 0.153200 
 0.151600 
 0.151600 
 0.151600 
 0.143600 
 0.142000 
 0.142000 
 0.151600 
 0.151600 
 0.175600 
 0.164400 
 0.146000 
 0.146000 
 0.146000 
 0.152400 
 0.152400 
 0.146800 
 0.148400 
 0.146800 
 0.140400 
 0.174000 
 0.170000 
 0.173200 
 0.170000 
 0.172400 
 0.170000 
 0.151600 
 0.150800 
 0.142000 
 0.140400 
 0.142000 
 0.158000 
 0.157200 
 0.157200 
 0.161200 
 0.161200 
 0.172400 
 0.172400 
 0.172400 
 0.166000 
 0.166000 
 0.167600 
 0.154000 
 0.154800 
 0.154800 
 0.154800 
 0.159600 
 0.165200 
 0.168400 
 0.168400 
 0.158800 
 0.158800 
 0.158800 
 0.155600 
 0.154800 
 0.155600 
 0.165200 
 0.165200 
 0.165200 
 0.169200 
 0.169200 
 0.168400 
 0.138000 
 0.138000 
 0.138000 
 0.166000 
 0.168400 
 0.147600 
 0.147600 
 0.172400 
 0.169200 
 0.171600 
 0.182000 
 0.182000 
 0.182000 
 0.170800 
 0.145200 
 0.145200 
 0.180400 
 0.180400 
 0.180400 
 0.149200 
 0.145200 
 0.149200 
 0.149200 
 0.147600 
 0.147600 
 0.146800 
 0.161200 
 0.146800 
 0.144400 
 0.171600 
 0.160400 
 0.158800 
 0.161200 
 0.162000 
 0.204400 
 0.174000 
 0.174000 
 0.162000 
 0.162000 
 0.154000 
 0.154800 
 0.155600 
 0.166000 
 0.164400 
 0.157200 
 0.157200 
 0.157200 
 0.156400 
 0.158800 
 0.158800 
 0.159600 
 0.159600 
 0.161200 
 0.162800 
 0.161200 
 0.169200 
 0.169200 
 0.151600 
 0.154000 
 0.153200 
 0.175600 
 0.174000 
 0.174000 
 0.150000 
 0.148400 
 0.160400 
 0.166000 
 0.181200 
 0.181200 
 0.150000 
 0.150000 
 0.160400 
 0.143600 
 0.143600 
 0.143600 
 0.172400 
 0.190000 
 0.192400 
 0.150800 
 0.152400 
 0.170800 
 0.167600 
 0.170000 
 0.138000 
 0.168400 
 0.167600 
 0.167600 
 0.152400 
 0.152400 
 0.153200 
 0.169200 
 0.169200 
 0.169200 
 0.147600 
 0.149200 
 0.148400 
 0.165200 
 0.166000 
 0.165200 
 0.166000 
 0.166000 
 0.164400 
 0.164400 
 0.138800 
 0.140400 
 0.149200 
 0.149200 
 0.149200 
 0.194000 
 0.194000 
 0.194000 
 0.160400 
 0.158800 
 0.158800 
 0.162800 
 0.162000 
 0.164400 
 0.162000 
 0.154800 
 0.166000 
 0.158800 
 0.158800 
 0.161200 
 0.161200 
 0.161200 
 0.151600 
 0.152400 
 0.152400 
 0.152400 
 0.161200 
 0.161200 
 0.150000 
 0.169200 
 0.169200 
 0.169200 
 0.170000 
 0.170000 
 0.170800 
 0.158000 
 0.146000 
 0.146000 
 0.151600 
 0.168400 
 0.168400 
 0.161200 
 0.161200 
 0.161200 
 0.164400 
 0.162800 
 0.165200 
 0.170800 
 0.162000 
 0.162000 
 0.162000 
 0.172400 
 0.170800 
 0.170800 
 0.181200 
 0.181200 
 0.181200 
 0.140400 
 0.140400 
 0.140400 
 0.146000 
 0.144400 
 0.144400 
 0.158800 
 0.138800 
 0.138800 
 0.170000 
 0.167600 
 0.161200 
 0.161200 
 0.157200 
 0.170800 
 0.169200 
 0.194000 
 0.194000 
 0.194000 
 0.161200 
 0.157200 
 0.157200 
 0.157200 
 0.168400 
 0.160400 
 0.160400 
 0.175600 
 0.176400 
 0.176400 
 0.146000 
 0.148400 
 0.166800 
 0.166800 
 0.166800 
 0.188400 
 0.185200 
 0.188400 
 0.173200 
 0.174800 
 0.173200 
 0.199600 
 0.161200 
 0.161200 
 0.161200 
 0.165200 
 0.162000 
 0.164400 
 0.157200 
 0.162000 
 0.162000 
 0.162000 
 0.165200 
 0.170800 
 0.170800 
 0.166800 
 0.166000 
 0.170800 
 0.160400 
 0.160400 
 0.187600 
 0.199600 
 0.202000 
 0.202000 
 0.143600 
 0.143600 
 0.145200 
 0.169200 
 0.149200 
 0.150000 
 0.149200 
 0.138000 
 0.137200 
 0.148400 
 0.163600 
 0.163600 
 0.154800 
 0.153200 
 0.164400 
 0.166800 
 0.164400 
 0.166000 
 0.162800 
 0.162800 
 0.133200 
 0.133200 
 0.154800 
 0.154800 
 0.165200 
 0.164400 
 0.164400 
 0.164400 
 0.167600 
 0.170000 
 0.133200 
 0.133200 
 0.131600 
 0.161200 
 0.161200 
 0.157200 
 0.158000 
 0.155600 
 0.158000 
 0.162800 
 0.162800 
 0.161200 
 0.137200 
 0.137200 
 0.170000 
 0.170000 
 0.155600 
 0.161200 
 0.161200 
 0.161200 
 0.162800 
 0.161200 
 0.168400 
 0.166800 
 0.167600 
 0.139600 
 0.138800 
 0.138800 
 0.151600 
 0.151600 
 0.151600 
 0.177200 
 0.177200 
 0.163600 
 0.163600 
 0.164400 
 0.139600 
 0.194000 
 0.141200 
 0.141200 
 0.141200 
 0.166800 
 0.178000 
 0.178000 
 0.178000 
 0.163600 
 0.163600 
 0.163600 
 0.156400 
 0.162000 
 0.159600 
 0.146800 
 0.149200 
 0.149200 
 0.151600 
 0.171600 
 0.171600 
 0.171600 
 0.137200 
 0.162800 
 0.161200 
 0.161200 
 0.167600 
 0.167600 
 0.168400 
 0.168400 
 0.166000 
 0.141200 
 0.141200 
 0.188400 
 0.177200 
 0.177200 
 0.165200 
 0.165200 
 0.169200 
 0.170800 
 0.170800 
 0.176400 
 0.176400 
 0.176400 
 0.160400 
 0.172400 
 0.166800 
 0.166800 
 0.166800 
 0.166800 
 0.142000 
 0.142800 
 0.141200 
 0.164400 
 0.164400 
 0.164400 
 0.151600 
 0.151600 
 0.157200 
 0.158000 
 0.170000 
 0.154000 
 0.160400 
 0.161200 
 0.155600 
 0.170800 
 0.171600 
 0.166800 
 0.167600 
 0.151600 
 0.162800 
 0.162000 
 0.162800 
 0.165200 
 0.165200 
 0.168400 
 0.170000 
 0.170000 
 0.157200 
 0.156400 
 0.156400 
 0.173200 
 0.173200 
 0.150800 
 0.175600 
 0.174800 
 0.174800 
 0.158800 
 0.156400 
 0.158800 
 0.168400 
 0.168400 
 0.167600 
 0.145200 
 0.144400 
 0.145200 
 0.151600 
 0.174800 
 0.141200 
 0.141200 
 0.141200 
 0.152400 
 0.144400 
 0.144400 
 0.153200 
 0.154000 
 0.161200 
 0.161200 
 0.175600 
 0.178000 
 0.178000 
 0.162800 
 0.162800 
 0.160400 
 0.159600 
 0.160400 
 0.174800 
 0.174000 
 0.174800 
 0.144400 
 0.154800 
 0.158800 
 0.158800 
 0.162800 
 0.161200 
 0.172400 
 0.159600 
 0.159600 
 0.158800 
 0.169200 
 0.169200 
 0.169200 
 0.167600 
 0.167600 
 0.167600 
 0.174800 
 0.166000 
 0.166000 
 0.166000 
 0.165200 
 0.165200 
 0.148400 
 0.148400 
 0.148400 
 0.164400 
 0.161200 
 0.169200 
 0.170000 
 0.169200 
 0.159600 
 0.158000 
 0.168400 
 0.168400 
 0.168400 
 0.168400 
 0.168400 
 0.162000 
 0.162000 
 0.161200 
 0.153200 
 0.153200 
 0.153200 
 0.171600 
 0.172400 
 0.172400 
 0.184400 
 0.166800 
 0.170000 
 0.169200 
 0.171600 
 0.157200 
 0.158800 
 0.157200 
 0.174000 
 0.174000 
 0.174000 
 0.143600 
 0.171600 
 0.172400 
 0.171600 
 0.153200 
 0.153200 
 0.170800 
 0.170800 
 0.159600 
 0.159600 
 0.153200 
 0.170000 
 0.169200 
 0.170000 
 0.156400 
 0.156400 
 0.166800 
 0.166800 
 0.165200 
 0.165200 
 0.165200 
 0.163600 
 0.163600 
 0.163600 
 0.156400 
 0.156400 
 0.134800 
 0.134800 
 0.163600 
 0.163600 
 0.173200 
 0.173200 
 0.154000 
 0.154800 
 0.155600 
 0.147600 
 0.147600 
 0.150800 
 0.161200 
 0.168400 
 0.168400 
 0.168400 
 0.162800 
 0.158800 
 0.158800 
 0.171600 
 0.138800 
 0.138800 
 0.166800 
 0.169200 
 0.171600 
 0.169200 
 0.170800 
 0.173200 
 0.156400 
 0.153200 
 0.153200 
 0.166000 
 0.161200 
 0.138000 
 0.139600 
 0.138000 
 0.196400 
 0.177200 
 0.177200 
 0.162800 
 0.165200 
 0.165200 
 0.154000 
 0.173200 
 0.170000 
 0.162000 
 0.162000 
 0.174800 
 0.174000 
 0.178800 
 0.178800 
 0.155600 
 0.152400 
 0.159600 
 0.162000 
 0.162000 
 0.159600 
 0.159600 
 0.170800 
 0.170800 
 0.168400 
 0.168400 
 0.170800 
 0.139600 
 0.166800 
 0.168400 
 0.168400 
 0.167600 
 0.166000 
 0.166000 
 0.166000 
 0.137200 
 0.137200 
 0.147600 
 0.158800 
 0.157200 
 0.172400 
 0.172400 
 0.178000 
 0.171600 
 0.171600 
 0.173200 
 0.178000 
 0.166800 
 0.166800 
 0.138800 
 0.138000 
 0.155600 
 0.166800 
 0.154000 
 0.152400 
 0.154000 
 0.161200 
 0.161200 
 0.161200 
 0.164400 
 0.164400 
 0.134000 
 0.166000 
 0.166000 
 0.173200 
 0.171600 
 0.178000 
 0.179600 
 0.173200 
 0.172400 
 0.172400 
 0.171600 
 0.156400 
 0.156400 
 0.154000 
 0.145200 
 0.185200 
 0.185200 
 0.178000 
 0.137200 
 0.138800 
 0.138800 
 0.168400 
 0.165200 
 0.165200 
 0.165200 
 0.168400 
 0.168400 
 0.168400 
 0.141200 
 0.141200 
 0.184400 
 0.181200 
 0.158000 
 0.156400 
 0.171600 
 0.164400 
 0.172400 
 0.170800 
 0.170800 
 0.168400 
 0.173200 
 0.174000 
 0.170000 
 0.165200 
 0.165200 
 0.155600 
 0.154800 
 0.155600 
 0.164400 
 0.164400 
 0.166800 
 0.166800 
 0.191600 
 0.191600 
 0.181200 
 0.181200 
 0.181200 
 0.161200 
 0.162800 
 0.162800 
 0.146000 
 0.146000 
 0.146000 
 0.174000 
 0.171600 
 0.169200 
 0.155600 
 0.155600 
 0.155600 
 0.173200 
 0.171600 
 0.139600 
 0.183600 
 0.183600 
 0.183600 
 0.154000 
 0.165200 
 0.165200 
 0.165200 
 0.163600 
 0.163600 
 0.163600 
 0.145200 
 0.143600 
 0.168400 
 0.168400 
 0.166800 
 0.146000 
 0.174000 
 0.173200 
 0.140400 
 0.138800 
 0.154800 
 0.146800 
 0.153200 
 0.154000 
 0.153200 
 0.178800 
 0.144400 
 0.148400 
 0.144400 
 0.163600 
 0.163600 
 0.141200 
 0.145200 
 0.140400 
 0.165200 
 0.165200 
 0.166000 
 0.183600 
 0.183600 
 0.182800 
 0.159600 
 0.159600 
 0.164400 
 0.166800 
 0.160400 
 0.162800 
 0.150800 
 0.165200 
 0.164400 
 0.166000 
 0.162800 
 0.157200 
 0.157200 
 0.171600 
 0.171600 
 0.174800 
 0.174800 
 0.173200 
 0.169200 
 0.171600 
 0.170800 
 0.166000 
 0.166000 
 0.165200 
 0.167600 
 0.168400 
 0.197200 
 0.179600 
 0.180400 
 0.175600 
 0.174800 
 0.181200 
 0.182000 
 0.148400 
 0.148400 
 0.150000 
 0.148400 
 0.178000 
 0.165200 
 0.174800 
 0.172400 
 0.174800 
 0.159600 
 0.187600 
 0.184400 
 0.187600 
 0.162800 
 0.164400 
 0.162800 
 0.166000 
 0.144400 
 0.146000 
 0.170800 
 0.170800 
 0.171600 
 0.158800 
 0.159600 
 0.162800 
 0.163600 
 0.142000 
 0.142000 
 0.142000 
 0.149200 
 0.156400 
 0.158800 
 0.157200 
 0.155600 
 0.163600 
 0.163600 
 0.165200 
 0.166000 
 0.162000 
 0.162000 
 0.162000 
 0.161200 
 0.162000 
 0.146000 
 0.146000 
 0.146000 
 0.156400 
 0.155600 
 0.153200 
 0.153200 
 0.153200 
 0.157200 
 0.157200 
 0.158800 
 0.136400 
 0.136400 
 0.134800 
 0.167600 
 0.177200 
 0.177200 
 0.158000 
 0.154800 
 0.154800 
 0.168400 
 0.161200 
 0.164400 
 0.164400 
 0.166000 
 0.165200 
 0.202000 
 0.159600 
 0.161200 
 0.161200 
 0.181200 
 0.179600 
 0.159600 
 0.166000 
 0.152400 
 0.152400 
 0.141200 
 0.141200 
 0.141200 
 0.169200 
 0.186000 
 0.174800 
 0.170800 
 0.170000 
 0.170800 
 0.150800 
 0.150800 
 0.150000 
 0.170800 
 0.170800 
 0.159600 
 0.159600 
 0.159600 
 0.157200 
 0.157200 
 0.141200 
 0.141200 
 0.156400 
 0.158000 
 0.166800 
 0.166800 
 0.166800 
 0.138800 
 0.152400 
 0.141200 
 0.141200 
 0.141200 
 0.149200 
 0.152400 
 0.150000 
 0.150000 
 0.146800 
 0.147600 
 0.147600 
 0.148400 
 0.147600 
 0.163600 
 0.151600 
 0.152400 
 0.163600 
 0.162800 
 0.151600 
 0.156400 
 0.154800 
 0.162800 
 0.162800 
 0.162800 
 0.148400 
 0.148400 
 0.158000 
 0.158800 
 0.155600 
 0.161200 
 0.159600 
 0.162000 
 0.160400 
 0.167600 
 0.167600 
 0.170000 
 0.159600 
 0.157200 
 0.154000 
 0.153200 
 0.162800 
 0.162800 
 0.162800 
 0.138800 
 0.136400 
 0.136400 
 0.136400 
 0.151600 
 0.151600 
 0.151600 
 0.150000 
 0.142800 
 0.142800 
 0.157200 
 0.157200 
 0.157200 
 0.158800 
 0.167600 
 0.166000 
 0.166800 
 0.166000 
 0.167600 
 0.162800 
 0.163600 
 0.163600 
 0.172400 
 0.159600 
 0.151600 
 0.163600 
 0.163600 
 0.155600 
 0.156400 
 0.146800 
 0.146800 
 0.142800 
 0.142800 
 0.142800 
 0.150000 
 0.150000 
 0.160400 
 0.168400 
 0.168400 
 0.165200 
 0.161200 
 0.165200 
 0.158800 
 0.158800 
 0.166000 
 0.160400 
 0.162800 
 0.161200 
 0.150800 
 0.150000 
 0.151600 
 0.147600 
 0.154800 
 0.152400 
 0.163600 
 0.162000 
 0.136400 
 0.163600 
 0.176400 
 0.176400 
 0.162000 
 0.162800 
 0.167600 
 0.167600 
 0.176400 
 0.149200 
 0.142000 
 0.142000 
 0.142000 
 0.181200 
 0.181200 
 0.170800 
 0.182000 
 0.180400 
 0.158800 
 0.166000 
 0.164400 
 0.164400 
 0.163600 
 0.160400 
 0.162000 
 0.160400 
 0.139600 
 0.160400 
 0.160400 
 0.160400 
 0.170000 
 0.171600 
 0.170000 
 0.165200 
 0.163600 
 0.164400 
 0.149200 
 0.154800 
 0.154800 
 0.154800 
 0.170800 
 0.171600 
 0.171600 
 0.166800 
 0.166800 
 0.171600 
 0.138000 
 0.138800 
 0.155600 
 0.155600 
 0.155600 
 0.160400 
 0.176400 
 0.175600 
 0.175600 
 0.164400 
 0.140400 
 0.140400 
 0.163600 
 0.162000 
 0.154800 
 0.162000 
 0.161200 
 0.162000 
 0.158000 
 0.158000 
 0.174800 
 0.174800 
 0.174800 
 0.178000 
 0.178000 
 0.160400 
 0.162000 
 0.162000 
 0.177200 
 0.178800 
 0.177200 
 0.151600 
 0.162000 
 0.164400 
 0.161200 
 0.178800 
 0.173200 
 0.172400 
 0.172400 
 0.169200 
 0.167600 
 0.165200 
 0.172400 
 0.172400 
 0.170800 
 0.170000 
 0.156400 
 0.148400 
 0.158800 
 0.166800 
 0.159600 
 0.161200 
 0.161200 
 0.161200 
 0.135600 
 0.136400 
 0.166000 
 0.166000 
 0.178800 
 0.178800 
 0.178800 
 0.168400 
 0.166000 
 0.158000 
 0.158000 
 0.158000 
 0.156400 
 0.154000 
 0.152400 
 0.154000 
 0.174800 
 0.175600 
 0.174800 
 0.193200 
 0.195600 
 0.187600 
 0.187600 
 0.187600 
 0.145200 
 0.146000 
 0.144400 
 0.171600 
 0.171600 
 0.150000 
 0.207600 
 0.207600 
 0.207600 
 0.157200 
 0.158000 
 0.157200 
 0.143600 
 0.142800 
 0.143600 
 0.147600 
 0.147600 
 0.145200 
 0.174800 
 0.175600 
 0.151600 
 0.141200 
 0.141200 
 0.139600 
 0.154000 
 0.154000 
 0.154000 
 0.144400 
 0.163600 
 0.163600 
 0.166800 
 0.165200 
 0.147600 
 0.150000 
 0.150800 
 0.170000 
 0.197200 
 0.198000 
 0.173200 
 0.172400 
 0.170800 
 0.169200 
 0.169200 
 0.167600 
 0.167600 
 0.172400 
 0.172400 
 0.175600 
 0.174000 
 0.166800 
 0.169200 
 0.166000 
 0.169200 
 0.169200 
 0.171600 
 0.171600 
 0.171600 
 0.171600 
 0.171600 
 0.172400 
 0.162800 
 0.162800 
 0.162800 
 0.154800 
 0.160400 
 0.160400 
 0.158800 
 0.166000 
 0.162800 
 0.162000 
 0.169200 
 0.179600 
 0.179600 
 0.172400 
 0.172400 
 0.172400 
 0.155600 
 0.155600 
 0.176400 
 0.178000 
 0.141200 
 0.140400 
 0.162000 
 0.147600 
 0.161200 
 0.157200 
 0.157200 
 0.157200 
 0.161200 
 0.159600 
 0.161200 
 0.150800 
 0.157200 
 0.170800 
 0.170800 
 0.183600 
 0.178800 
 0.158000 
 0.157200 
 0.157200 
 0.157200 
 0.157200 
 0.157200 
 0.157200 
 0.186800 
 0.186800 
 0.191600 
 0.191600 
 0.177200 
 0.167600 
 0.166000 
 0.166000 
 0.148400 
 0.146000 
 0.146000 
 0.152400 
 0.152400 
 0.152400 
 0.147600 
 0.148400 
 0.152400 
 0.152400 
 0.154800 
 0.156400 
 0.167600 
 0.167600 
 0.170800 
 0.172400 
 0.170800 
 0.174800 
 0.175600 
 0.173200 
 0.170800 
 0.171600 
 0.149200 
 0.149200 
 0.162000 
 0.160400 
 0.160400 
 0.138000 
 0.138800 
 0.138800 
 0.158800 
 0.158000 
 0.158800 
 0.159600 
 0.159600 
 0.155600 
 0.163600 
 0.166800 
 0.163600 
 0.163600 
 0.162800 
 0.166800 
 0.169200 
 0.186000 
 0.185200 
 0.146000 
 0.146000 
 0.147600 
 0.169200 
 0.166800 
 0.161200 
 0.168400 
 0.168400 
 0.167600 
 0.196400 
 0.198000 
 0.198000 
 0.172400 
 0.172400 
 0.172400 
 0.180400 
 0.180400 
 0.181200 
 0.172400 
 0.172400 
 0.172400 
 0.157200 
 0.147600 
 0.147600 
 0.146800 
 0.148400 
 0.148400 
 0.161200 
 0.191600 
 0.178000 
 0.178000 
 0.178000 
 0.154800 
 0.174000 
 0.174000 
 0.166800 
 0.169200 
 0.194000 
 0.194000 
 0.150000 
 0.160400 
 0.159600 
 0.172400 
 0.172400 
 0.155600 
 0.157200 
 0.156400 
 0.160400 
 0.160400 
 0.160400 
 0.158000 
 0.208400 
 0.207600 
 0.161200 
 0.155600 
 0.155600 
 0.155600 
 0.158000 
 0.159600 
 0.159600 
 0.161200 
 0.162800 
 0.170000 
 0.162000 
 0.161200 
 0.162000 
 0.150000 
 0.150000 
 0.164400 
 0.163600 
 0.175600 
 0.154800 
 0.154800 
 0.156400 
 0.163600 
 0.163600 
 0.145200 
 0.172400 
 0.166000 
 0.171600 
 0.170800 
 0.171600 
 0.174800 
 0.174000 
 0.172400 
 0.172400 
 0.172400 
 0.153200 
 0.153200 
 0.153200 
 0.176400 
 0.158800 
 0.158800 
 0.166000 
 0.166000 
 0.165200 
 0.163600 
 0.163600 
 0.132400 
 0.132400 
 0.131600 
 0.156400 
 0.156400 
 0.173200 
 0.174800 
 0.166800 
 0.166000 
 0.166000 
 0.161200 
 0.161200 
 0.168400 
 0.168400 
 0.162000 
 0.162000 
 0.170800 
 0.153200 
 0.150000 
 0.168400 
 0.168400 
 0.167600 
 0.163600 
 0.164400 
 0.163600 
 0.166800 
 0.166800 
 0.163600 
 0.163600 
 0.163600 
 0.178000 
 0.174800 
 0.178000 
 0.173200 
 0.178000 
 0.175600 
 0.174800 
 0.175600 
 0.164400 
 0.174000 
 0.174000 
 0.171600 
 0.137200 
 0.137200 
 0.137200 
 0.159600 
 0.166800 
 0.166800 
 0.165200 
 0.163600 
 0.163600 
 0.153200 
 0.150800 
 0.153200 
 0.177200 
 0.153200 
 0.153200 
 0.151600 
 0.148400 
 0.160400 
 0.153200 
 0.167600 
 0.167600 
 0.177200 
 0.177200 
 0.178800 
 0.180400 
 0.175600 
 0.174800 
 0.170000 
 0.170000 
 0.153200 
 0.154800 
 0.153200 
 0.153200 
 0.149200 
 0.176400 
 0.171600 
 0.171600 
 0.174800 
 0.178000 
 0.162800 
 0.189200 
 0.189200 
 0.189200 
 0.138000 
 0.161200 
 0.168400 
 0.166000 
 0.165200 
 0.174800 
 0.174800 
 0.174800 
 0.198000 
 0.198800 
 0.153200 
 0.153200 
 0.153200 
 0.149200 
 0.149200 
 0.176400 
 0.176400 
 0.176400 
 0.156400 
 0.156400 
 0.158800 
 0.160400 