# vtk DataFile Version 3.0
vtk output
ASCII
DATASET UNSTRUCTURED_GRID
POINTS 10 float
  24.028 2.7079 18.981
    -10.411 4.835 23.629
    16.554 2.5196 -21.218
    -10.824 2.0543 -16.935
    2.1784 -3.3824 4.871
    5.913 -3.6821 3.7479
    8.5975 -3.8031 1.7187
    11.029 -3.6984 -0.65009
    19.535 1.4609 -0.13125
    21.344 8.9434 4.4915
POINT_DATA 10
SCALARS Scalar1 double
LOOKUP_TABLE default
1 2 3 4 5 6 7 8 9 
10 
